# vtk DataFile Version 3.0
visit_manual_sample_density
ASCII
DATASET STRUCTURED_POINTS
DIMENSIONS 41 41 41
ORIGIN -20.0 -20.0 -20.0
SPACING 1.0 1.0 1.0
POINT_DATA 68921
SCALARS density float 1
LOOKUP_TABLE default
1200.0 1161.0 1124.0 1089.0 1056.0 1025.0 996.0 969.0 944.0 921.0 900.0 881.0 864.0 849.0 836.0 825.0 816.0 809.0 804.0 801.0 800.0 801.0 804.0 809.0 816.0 825.0 836.0 849.0 864.0 881.0 900.0 921.0 944.0 969.0 996.0 1025.0 1056.0 1089.0 1124.0 1161.0 1200.0 1161.0 1122.0 1085.0 1050.0 1017.0 986.0 957.0 930.0 905.0 882.0 861.0 842.0 825.0 810.0 797.0 786.0 777.0 770.0 765.0 762.0 761.0 762.0 765.0 770.0 777.0 786.0 797.0 810.0 825.0 842.0 861.0 882.0 905.0 930.0 957.0 986.0 1017.0 1050.0 1085.0 1122.0 1161.0 1124.0 1085.0 1048.0 1013.0 980.0 949.0 920.0 893.0 868.0 845.0 824.0 805.0 788.0 773.0 760.0 749.0 740.0 733.0 728.0 725.0 724.0 725.0 728.0 733.0 740.0 749.0 760.0 773.0 788.0 805.0 824.0 845.0 868.0 893.0 920.0 949.0 980.0 1013.0 1048.0 1085.0 1124.0 1089.0 1050.0 1013.0 978.0 945.0 914.0 885.0 858.0 833.0 810.0 789.0 770.0 753.0 738.0 725.0 714.0 705.0 698.0 693.0 690.0 689.0 690.0 693.0 698.0 705.0 714.0 725.0 738.0 753.0 770.0 789.0 810.0 833.0 858.0 885.0 914.0 945.0 978.0 1013.0 1050.0 1089.0 1056.0 1017.0 980.0 945.0 912.0 881.0 852.0 825.0 800.0 777.0 756.0 737.0 720.0 705.0 692.0 681.0 672.0 665.0 660.0 657.0 656.0 657.0 660.0 665.0 672.0 681.0 692.0 705.0 720.0 737.0 756.0 777.0 800.0 825.0 852.0 881.0 912.0 945.0 980.0 1017.0 1056.0 1025.0 986.0 949.0 914.0 881.0 850.0 821.0 794.0 769.0 746.0 725.0 706.0 689.0 674.0 661.0 650.0 641.0 634.0 629.0 626.0 625.0 626.0 629.0 634.0 641.0 650.0 661.0 674.0 689.0 706.0 725.0 746.0 769.0 794.0 821.0 850.0 881.0 914.0 949.0 986.0 1025.0 996.0 957.0 920.0 885.0 852.0 821.0 792.0 765.0 740.0 717.0 696.0 677.0 660.0 645.0 632.0 621.0 612.0 605.0 600.0 597.0 596.0 597.0 600.0 605.0 612.0 621.0 632.0 645.0 660.0 677.0 696.0 717.0 740.0 765.0 792.0 821.0 852.0 885.0 920.0 957.0 996.0 969.0 930.0 893.0 858.0 825.0 794.0 765.0 738.0 713.0 690.0 669.0 650.0 633.0 618.0 605.0 594.0 585.0 578.0 573.0 570.0 569.0 570.0 573.0 578.0 585.0 594.0 605.0 618.0 633.0 650.0 669.0 690.0 713.0 738.0 765.0 794.0 825.0 858.0 893.0 930.0 969.0 944.0 905.0 868.0 833.0 800.0 769.0 740.0 713.0 688.0 665.0 644.0 625.0 608.0 593.0 580.0 569.0 560.0 553.0 548.0 545.0 544.0 545.0 548.0 553.0 560.0 569.0 580.0 593.0 608.0 625.0 644.0 665.0 688.0 713.0 740.0 769.0 800.0 833.0 868.0 905.0 944.0 921.0 882.0 845.0 810.0 777.0 746.0 717.0 690.0 665.0 642.0 621.0 602.0 585.0 570.0 557.0 546.0 537.0 530.0 525.0 522.0 521.0 522.0 525.0 530.0 537.0 546.0 557.0 570.0 585.0 602.0 621.0 642.0 665.0 690.0 717.0 746.0 777.0 810.0 845.0 882.0 921.0 900.0 861.0 824.0 789.0 756.0 725.0 696.0 669.0 644.0 621.0 600.0 581.0 564.0 549.0 536.0 525.0 516.0 509.0 504.0 501.0 500.0 501.0 504.0 509.0 516.0 525.0 536.0 549.0 564.0 581.0 600.0 621.0 644.0 669.0 696.0 725.0 756.0 789.0 824.0 861.0 900.0 881.0 842.0 805.0 770.0 737.0 706.0 677.0 650.0 625.0 602.0 581.0 562.0 545.0 530.0 517.0 506.0 497.0 490.0 485.0 482.0 481.0 482.0 485.0 490.0 497.0 506.0 517.0 530.0 545.0 562.0 581.0 602.0 625.0 650.0 677.0 706.0 737.0 770.0 805.0 842.0 881.0 864.0 825.0 788.0 753.0 720.0 689.0 660.0 633.0 608.0 585.0 564.0 545.0 528.0 513.0 500.0 489.0 480.0 473.0 468.0 465.0 464.0 465.0 468.0 473.0 480.0 489.0 500.0 513.0 528.0 545.0 564.0 585.0 608.0 633.0 660.0 689.0 720.0 753.0 788.0 825.0 864.0 849.0 810.0 773.0 738.0 705.0 674.0 645.0 618.0 593.0 570.0 549.0 530.0 513.0 498.0 485.0 474.0 465.0 458.0 453.0 450.0 449.0 450.0 453.0 458.0 465.0 474.0 485.0 498.0 513.0 530.0 549.0 570.0 593.0 618.0 645.0 674.0 705.0 738.0 773.0 810.0 849.0 836.0 797.0 760.0 725.0 692.0 661.0 632.0 605.0 580.0 557.0 536.0 517.0 500.0 485.0 472.0 461.0 452.0 445.0 440.0 437.0 436.0 437.0 440.0 445.0 452.0 461.0 472.0 485.0 500.0 517.0 536.0 557.0 580.0 605.0 632.0 661.0 692.0 725.0 760.0 797.0 836.0 825.0 786.0 749.0 714.0 681.0 650.0 621.0 594.0 569.0 546.0 525.0 506.0 489.0 474.0 461.0 450.0 441.0 434.0 429.0 426.0 425.0 426.0 429.0 434.0 441.0 450.0 461.0 474.0 489.0 506.0 525.0 546.0 569.0 594.0 621.0 650.0 681.0 714.0 749.0 786.0 825.0 816.0 777.0 740.0 705.0 672.0 641.0 612.0 585.0 560.0 537.0 516.0 497.0 480.0 465.0 452.0 441.0 432.0 425.0 420.0 417.0 416.0 417.0 420.0 425.0 432.0 441.0 452.0 465.0 480.0 497.0 516.0 537.0 560.0 585.0 612.0 641.0 672.0 705.0 740.0 777.0 816.0 809.0 770.0 733.0 698.0 665.0 634.0 605.0 578.0 553.0 530.0 509.0 490.0 473.0 458.0 445.0 434.0 425.0 418.0 413.0 410.0 409.0 410.0 413.0 418.0 425.0 434.0 445.0 458.0 473.0 490.0 509.0 530.0 553.0 578.0 605.0 634.0 665.0 698.0 733.0 770.0 809.0 804.0 765.0 728.0 693.0 660.0 629.0 600.0 573.0 548.0 525.0 504.0 485.0 468.0 453.0 440.0 429.0 420.0 413.0 408.0 405.0 404.0 405.0 408.0 413.0 420.0 429.0 440.0 453.0 468.0 485.0 504.0 525.0 548.0 573.0 600.0 629.0 660.0 693.0 728.0 765.0 804.0 801.0 762.0 725.0 690.0 657.0 626.0 597.0 570.0 545.0 522.0 501.0 482.0 465.0 450.0 437.0 426.0 417.0 410.0 405.0 402.0 401.0 402.0 405.0 410.0 417.0 426.0 437.0 450.0 465.0 482.0 501.0 522.0 545.0 570.0 597.0 626.0 657.0 690.0 725.0 762.0 801.0 800.0 761.0 724.0 689.0 656.0 625.0 596.0 569.0 544.0 521.0 500.0 481.0 464.0 449.0 436.0 425.0 416.0 409.0 404.0 401.0 400.0 401.0 404.0 409.0 416.0 425.0 436.0 449.0 464.0 481.0 500.0 521.0 544.0 569.0 596.0 625.0 656.0 689.0 724.0 761.0 800.0 801.0 762.0 725.0 690.0 657.0 626.0 597.0 570.0 545.0 522.0 501.0 482.0 465.0 450.0 437.0 426.0 417.0 410.0 405.0 402.0 401.0 402.0 405.0 410.0 417.0 426.0 437.0 450.0 465.0 482.0 501.0 522.0 545.0 570.0 597.0 626.0 657.0 690.0 725.0 762.0 801.0 804.0 765.0 728.0 693.0 660.0 629.0 600.0 573.0 548.0 525.0 504.0 485.0 468.0 453.0 440.0 429.0 420.0 413.0 408.0 405.0 404.0 405.0 408.0 413.0 420.0 429.0 440.0 453.0 468.0 485.0 504.0 525.0 548.0 573.0 600.0 629.0 660.0 693.0 728.0 765.0 804.0 809.0 770.0 733.0 698.0 665.0 634.0 605.0 578.0 553.0 530.0 509.0 490.0 473.0 458.0 445.0 434.0 425.0 418.0 413.0 410.0 409.0 410.0 413.0 418.0 425.0 434.0 445.0 458.0 473.0 490.0 509.0 530.0 553.0 578.0 605.0 634.0 665.0 698.0 733.0 770.0 809.0 816.0 777.0 740.0 705.0 672.0 641.0 612.0 585.0 560.0 537.0 516.0 497.0 480.0 465.0 452.0 441.0 432.0 425.0 420.0 417.0 416.0 417.0 420.0 425.0 432.0 441.0 452.0 465.0 480.0 497.0 516.0 537.0 560.0 585.0 612.0 641.0 672.0 705.0 740.0 777.0 816.0 825.0 786.0 749.0 714.0 681.0 650.0 621.0 594.0 569.0 546.0 525.0 506.0 489.0 474.0 461.0 450.0 441.0 434.0 429.0 426.0 425.0 426.0 429.0 434.0 441.0 450.0 461.0 474.0 489.0 506.0 525.0 546.0 569.0 594.0 621.0 650.0 681.0 714.0 749.0 786.0 825.0 836.0 797.0 760.0 725.0 692.0 661.0 632.0 605.0 580.0 557.0 536.0 517.0 500.0 485.0 472.0 461.0 452.0 445.0 440.0 437.0 436.0 437.0 440.0 445.0 452.0 461.0 472.0 485.0 500.0 517.0 536.0 557.0 580.0 605.0 632.0 661.0 692.0 725.0 760.0 797.0 836.0 849.0 810.0 773.0 738.0 705.0 674.0 645.0 618.0 593.0 570.0 549.0 530.0 513.0 498.0 485.0 474.0 465.0 458.0 453.0 450.0 449.0 450.0 453.0 458.0 465.0 474.0 485.0 498.0 513.0 530.0 549.0 570.0 593.0 618.0 645.0 674.0 705.0 738.0 773.0 810.0 849.0 864.0 825.0 788.0 753.0 720.0 689.0 660.0 633.0 608.0 585.0 564.0 545.0 528.0 513.0 500.0 489.0 480.0 473.0 468.0 465.0 464.0 465.0 468.0 473.0 480.0 489.0 500.0 513.0 528.0 545.0 564.0 585.0 608.0 633.0 660.0 689.0 720.0 753.0 788.0 825.0 864.0 881.0 842.0 805.0 770.0 737.0 706.0 677.0 650.0 625.0 602.0 581.0 562.0 545.0 530.0 517.0 506.0 497.0 490.0 485.0 482.0 481.0 482.0 485.0 490.0 497.0 506.0 517.0 530.0 545.0 562.0 581.0 602.0 625.0 650.0 677.0 706.0 737.0 770.0 805.0 842.0 881.0 900.0 861.0 824.0 789.0 756.0 725.0 696.0 669.0 644.0 621.0 600.0 581.0 564.0 549.0 536.0 525.0 516.0 509.0 504.0 501.0 500.0 501.0 504.0 509.0 516.0 525.0 536.0 549.0 564.0 581.0 600.0 621.0 644.0 669.0 696.0 725.0 756.0 789.0 824.0 861.0 900.0 921.0 882.0 845.0 810.0 777.0 746.0 717.0 690.0 665.0 642.0 621.0 602.0 585.0 570.0 557.0 546.0 537.0 530.0 525.0 522.0 521.0 522.0 525.0 530.0 537.0 546.0 557.0 570.0 585.0 602.0 621.0 642.0 665.0 690.0 717.0 746.0 777.0 810.0 845.0 882.0 921.0 944.0 905.0 868.0 833.0 800.0 769.0 740.0 713.0 688.0 665.0 644.0 625.0 608.0 593.0 580.0 569.0 560.0 553.0 548.0 545.0 544.0 545.0 548.0 553.0 560.0 569.0 580.0 593.0 608.0 625.0 644.0 665.0 688.0 713.0 740.0 769.0 800.0 833.0 868.0 905.0 944.0 969.0 930.0 893.0 858.0 825.0 794.0 765.0 738.0 713.0 690.0 669.0 650.0 633.0 618.0 605.0 594.0 585.0 578.0 573.0 570.0 569.0 570.0 573.0 578.0 585.0 594.0 605.0 618.0 633.0 650.0 669.0 690.0 713.0 738.0 765.0 794.0 825.0 858.0 893.0 930.0 969.0 996.0 957.0 920.0 885.0 852.0 821.0 792.0 765.0 740.0 717.0 696.0 677.0 660.0 645.0 632.0 621.0 612.0 605.0 600.0 597.0 596.0 597.0 600.0 605.0 612.0 621.0 632.0 645.0 660.0 677.0 696.0 717.0 740.0 765.0 792.0 821.0 852.0 885.0 920.0 957.0 996.0 1025.0 986.0 949.0 914.0 881.0 850.0 821.0 794.0 769.0 746.0 725.0 706.0 689.0 674.0 661.0 650.0 641.0 634.0 629.0 626.0 625.0 626.0 629.0 634.0 641.0 650.0 661.0 674.0 689.0 706.0 725.0 746.0 769.0 794.0 821.0 850.0 881.0 914.0 949.0 986.0 1025.0 1056.0 1017.0 980.0 945.0 912.0 881.0 852.0 825.0 800.0 777.0 756.0 737.0 720.0 705.0 692.0 681.0 672.0 665.0 660.0 657.0 656.0 657.0 660.0 665.0 672.0 681.0 692.0 705.0 720.0 737.0 756.0 777.0 800.0 825.0 852.0 881.0 912.0 945.0 980.0 1017.0 1056.0 1089.0 1050.0 1013.0 978.0 945.0 914.0 885.0 858.0 833.0 810.0 789.0 770.0 753.0 738.0 725.0 714.0 705.0 698.0 693.0 690.0 689.0 690.0 693.0 698.0 705.0 714.0 725.0 738.0 753.0 770.0 789.0 810.0 833.0 858.0 885.0 914.0 945.0 978.0 1013.0 1050.0 1089.0 1124.0 1085.0 1048.0 1013.0 980.0 949.0 920.0 893.0 868.0 845.0 824.0 805.0 788.0 773.0 760.0 749.0 740.0 733.0 728.0 725.0 724.0 725.0 728.0 733.0 740.0 749.0 760.0 773.0 788.0 805.0 824.0 845.0 868.0 893.0 920.0 949.0 980.0 1013.0 1048.0 1085.0 1124.0 1161.0 1122.0 1085.0 1050.0 1017.0 986.0 957.0 930.0 905.0 882.0 861.0 842.0 825.0 810.0 797.0 786.0 777.0 770.0 765.0 762.0 761.0 762.0 765.0 770.0 777.0 786.0 797.0 810.0 825.0 842.0 861.0 882.0 905.0 930.0 957.0 986.0 1017.0 1050.0 1085.0 1122.0 1161.0 1200.0 1161.0 1124.0 1089.0 1056.0 1025.0 996.0 969.0 944.0 921.0 900.0 881.0 864.0 849.0 836.0 825.0 816.0 809.0 804.0 801.0 800.0 801.0 804.0 809.0 816.0 825.0 836.0 849.0 864.0 881.0 900.0 921.0 944.0 969.0 996.0 1025.0 1056.0 1089.0 1124.0 1161.0 1200.0 1161.0 1122.0 1085.0 1050.0 1017.0 986.0 957.0 930.0 905.0 882.0 861.0 842.0 825.0 810.0 797.0 786.0 777.0 770.0 765.0 762.0 761.0 762.0 765.0 770.0 777.0 786.0 797.0 810.0 825.0 842.0 861.0 882.0 905.0 930.0 957.0 986.0 1017.0 1050.0 1085.0 1122.0 1161.0 1122.0 1083.0 1046.0 1011.0 978.0 947.0 918.0 891.0 866.0 843.0 822.0 803.0 786.0 771.0 758.0 747.0 738.0 731.0 726.0 723.0 722.0 723.0 726.0 731.0 738.0 747.0 758.0 771.0 786.0 803.0 822.0 843.0 866.0 891.0 918.0 947.0 978.0 1011.0 1046.0 1083.0 1122.0 1085.0 1046.0 1009.0 974.0 941.0 910.0 881.0 854.0 829.0 806.0 785.0 766.0 749.0 734.0 721.0 710.0 701.0 694.0 689.0 686.0 685.0 686.0 689.0 694.0 701.0 710.0 721.0 734.0 749.0 766.0 785.0 806.0 829.0 854.0 881.0 910.0 941.0 974.0 1009.0 1046.0 1085.0 1050.0 1011.0 974.0 939.0 906.0 875.0 846.0 819.0 794.0 771.0 750.0 731.0 714.0 699.0 686.0 675.0 666.0 659.0 654.0 651.0 650.0 651.0 654.0 659.0 666.0 675.0 686.0 699.0 714.0 731.0 750.0 771.0 794.0 819.0 846.0 875.0 906.0 939.0 974.0 1011.0 1050.0 1017.0 978.0 941.0 906.0 873.0 842.0 813.0 786.0 761.0 738.0 717.0 698.0 681.0 666.0 653.0 642.0 633.0 626.0 621.0 618.0 617.0 618.0 621.0 626.0 633.0 642.0 653.0 666.0 681.0 698.0 717.0 738.0 761.0 786.0 813.0 842.0 873.0 906.0 941.0 978.0 1017.0 986.0 947.0 910.0 875.0 842.0 811.0 782.0 755.0 730.0 707.0 686.0 667.0 650.0 635.0 622.0 611.0 602.0 595.0 590.0 587.0 586.0 587.0 590.0 595.0 602.0 611.0 622.0 635.0 650.0 667.0 686.0 707.0 730.0 755.0 782.0 811.0 842.0 875.0 910.0 947.0 986.0 957.0 918.0 881.0 846.0 813.0 782.0 753.0 726.0 701.0 678.0 657.0 638.0 621.0 606.0 593.0 582.0 573.0 566.0 561.0 558.0 557.0 558.0 561.0 566.0 573.0 582.0 593.0 606.0 621.0 638.0 657.0 678.0 701.0 726.0 753.0 782.0 813.0 846.0 881.0 918.0 957.0 930.0 891.0 854.0 819.0 786.0 755.0 726.0 699.0 674.0 651.0 630.0 611.0 594.0 579.0 566.0 555.0 546.0 539.0 534.0 531.0 530.0 531.0 534.0 539.0 546.0 555.0 566.0 579.0 594.0 611.0 630.0 651.0 674.0 699.0 726.0 755.0 786.0 819.0 854.0 891.0 930.0 905.0 866.0 829.0 794.0 761.0 730.0 701.0 674.0 649.0 626.0 605.0 586.0 569.0 554.0 541.0 530.0 521.0 514.0 509.0 506.0 505.0 506.0 509.0 514.0 521.0 530.0 541.0 554.0 569.0 586.0 605.0 626.0 649.0 674.0 701.0 730.0 761.0 794.0 829.0 866.0 905.0 882.0 843.0 806.0 771.0 738.0 707.0 678.0 651.0 626.0 603.0 582.0 563.0 546.0 531.0 518.0 507.0 498.0 491.0 486.0 483.0 482.0 483.0 486.0 491.0 498.0 507.0 518.0 531.0 546.0 563.0 582.0 603.0 626.0 651.0 678.0 707.0 738.0 771.0 806.0 843.0 882.0 861.0 822.0 785.0 750.0 717.0 686.0 657.0 630.0 605.0 582.0 561.0 542.0 525.0 510.0 497.0 486.0 477.0 470.0 465.0 462.0 461.0 462.0 465.0 470.0 477.0 486.0 497.0 510.0 525.0 542.0 561.0 582.0 605.0 630.0 657.0 686.0 717.0 750.0 785.0 822.0 861.0 842.0 803.0 766.0 731.0 698.0 667.0 638.0 611.0 586.0 563.0 542.0 523.0 506.0 491.0 478.0 467.0 458.0 451.0 446.0 443.0 442.0 443.0 446.0 451.0 458.0 467.0 478.0 491.0 506.0 523.0 542.0 563.0 586.0 611.0 638.0 667.0 698.0 731.0 766.0 803.0 842.0 825.0 786.0 749.0 714.0 681.0 650.0 621.0 594.0 569.0 546.0 525.0 506.0 489.0 474.0 461.0 450.0 441.0 434.0 429.0 426.0 425.0 426.0 429.0 434.0 441.0 450.0 461.0 474.0 489.0 506.0 525.0 546.0 569.0 594.0 621.0 650.0 681.0 714.0 749.0 786.0 825.0 810.0 771.0 734.0 699.0 666.0 635.0 606.0 579.0 554.0 531.0 510.0 491.0 474.0 459.0 446.0 435.0 426.0 419.0 414.0 411.0 410.0 411.0 414.0 419.0 426.0 435.0 446.0 459.0 474.0 491.0 510.0 531.0 554.0 579.0 606.0 635.0 666.0 699.0 734.0 771.0 810.0 797.0 758.0 721.0 686.0 653.0 622.0 593.0 566.0 541.0 518.0 497.0 478.0 461.0 446.0 433.0 422.0 413.0 406.0 401.0 398.0 397.0 398.0 401.0 406.0 413.0 422.0 433.0 446.0 461.0 478.0 497.0 518.0 541.0 566.0 593.0 622.0 653.0 686.0 721.0 758.0 797.0 786.0 747.0 710.0 675.0 642.0 611.0 582.0 555.0 530.0 507.0 486.0 467.0 450.0 435.0 422.0 411.0 402.0 395.0 390.0 387.0 386.0 387.0 390.0 395.0 402.0 411.0 422.0 435.0 450.0 467.0 486.0 507.0 530.0 555.0 582.0 611.0 642.0 675.0 710.0 747.0 786.0 777.0 738.0 701.0 666.0 633.0 602.0 573.0 546.0 521.0 498.0 477.0 458.0 441.0 426.0 413.0 402.0 393.0 386.0 381.0 378.0 377.0 378.0 381.0 386.0 393.0 402.0 413.0 426.0 441.0 458.0 477.0 498.0 521.0 546.0 573.0 602.0 633.0 666.0 701.0 738.0 777.0 770.0 731.0 694.0 659.0 626.0 595.0 566.0 539.0 514.0 491.0 470.0 451.0 434.0 419.0 406.0 395.0 386.0 379.0 374.0 371.0 370.0 371.0 374.0 379.0 386.0 395.0 406.0 419.0 434.0 451.0 470.0 491.0 514.0 539.0 566.0 595.0 626.0 659.0 694.0 731.0 770.0 765.0 726.0 689.0 654.0 621.0 590.0 561.0 534.0 509.0 486.0 465.0 446.0 429.0 414.0 401.0 390.0 381.0 374.0 369.0 366.0 365.0 366.0 369.0 374.0 381.0 390.0 401.0 414.0 429.0 446.0 465.0 486.0 509.0 534.0 561.0 590.0 621.0 654.0 689.0 726.0 765.0 762.0 723.0 686.0 651.0 618.0 587.0 558.0 531.0 506.0 483.0 462.0 443.0 426.0 411.0 398.0 387.0 378.0 371.0 366.0 363.0 362.0 363.0 366.0 371.0 378.0 387.0 398.0 411.0 426.0 443.0 462.0 483.0 506.0 531.0 558.0 587.0 618.0 651.0 686.0 723.0 762.0 761.0 722.0 685.0 650.0 617.0 586.0 557.0 530.0 505.0 482.0 461.0 442.0 425.0 410.0 397.0 386.0 377.0 370.0 365.0 362.0 361.0 362.0 365.0 370.0 377.0 386.0 397.0 410.0 425.0 442.0 461.0 482.0 505.0 530.0 557.0 586.0 617.0 650.0 685.0 722.0 761.0 762.0 723.0 686.0 651.0 618.0 587.0 558.0 531.0 506.0 483.0 462.0 443.0 426.0 411.0 398.0 387.0 378.0 371.0 366.0 363.0 362.0 363.0 366.0 371.0 378.0 387.0 398.0 411.0 426.0 443.0 462.0 483.0 506.0 531.0 558.0 587.0 618.0 651.0 686.0 723.0 762.0 765.0 726.0 689.0 654.0 621.0 590.0 561.0 534.0 509.0 486.0 465.0 446.0 429.0 414.0 401.0 390.0 381.0 374.0 369.0 366.0 365.0 366.0 369.0 374.0 381.0 390.0 401.0 414.0 429.0 446.0 465.0 486.0 509.0 534.0 561.0 590.0 621.0 654.0 689.0 726.0 765.0 770.0 731.0 694.0 659.0 626.0 595.0 566.0 539.0 514.0 491.0 470.0 451.0 434.0 419.0 406.0 395.0 386.0 379.0 374.0 371.0 370.0 371.0 374.0 379.0 386.0 395.0 406.0 419.0 434.0 451.0 470.0 491.0 514.0 539.0 566.0 595.0 626.0 659.0 694.0 731.0 770.0 777.0 738.0 701.0 666.0 633.0 602.0 573.0 546.0 521.0 498.0 477.0 458.0 441.0 426.0 413.0 402.0 393.0 386.0 381.0 378.0 377.0 378.0 381.0 386.0 393.0 402.0 413.0 426.0 441.0 458.0 477.0 498.0 521.0 546.0 573.0 602.0 633.0 666.0 701.0 738.0 777.0 786.0 747.0 710.0 675.0 642.0 611.0 582.0 555.0 530.0 507.0 486.0 467.0 450.0 435.0 422.0 411.0 402.0 395.0 390.0 387.0 386.0 387.0 390.0 395.0 402.0 411.0 422.0 435.0 450.0 467.0 486.0 507.0 530.0 555.0 582.0 611.0 642.0 675.0 710.0 747.0 786.0 797.0 758.0 721.0 686.0 653.0 622.0 593.0 566.0 541.0 518.0 497.0 478.0 461.0 446.0 433.0 422.0 413.0 406.0 401.0 398.0 397.0 398.0 401.0 406.0 413.0 422.0 433.0 446.0 461.0 478.0 497.0 518.0 541.0 566.0 593.0 622.0 653.0 686.0 721.0 758.0 797.0 810.0 771.0 734.0 699.0 666.0 635.0 606.0 579.0 554.0 531.0 510.0 491.0 474.0 459.0 446.0 435.0 426.0 419.0 414.0 411.0 410.0 411.0 414.0 419.0 426.0 435.0 446.0 459.0 474.0 491.0 510.0 531.0 554.0 579.0 606.0 635.0 666.0 699.0 734.0 771.0 810.0 825.0 786.0 749.0 714.0 681.0 650.0 621.0 594.0 569.0 546.0 525.0 506.0 489.0 474.0 461.0 450.0 441.0 434.0 429.0 426.0 425.0 426.0 429.0 434.0 441.0 450.0 461.0 474.0 489.0 506.0 525.0 546.0 569.0 594.0 621.0 650.0 681.0 714.0 749.0 786.0 825.0 842.0 803.0 766.0 731.0 698.0 667.0 638.0 611.0 586.0 563.0 542.0 523.0 506.0 491.0 478.0 467.0 458.0 451.0 446.0 443.0 442.0 443.0 446.0 451.0 458.0 467.0 478.0 491.0 506.0 523.0 542.0 563.0 586.0 611.0 638.0 667.0 698.0 731.0 766.0 803.0 842.0 861.0 822.0 785.0 750.0 717.0 686.0 657.0 630.0 605.0 582.0 561.0 542.0 525.0 510.0 497.0 486.0 477.0 470.0 465.0 462.0 461.0 462.0 465.0 470.0 477.0 486.0 497.0 510.0 525.0 542.0 561.0 582.0 605.0 630.0 657.0 686.0 717.0 750.0 785.0 822.0 861.0 882.0 843.0 806.0 771.0 738.0 707.0 678.0 651.0 626.0 603.0 582.0 563.0 546.0 531.0 518.0 507.0 498.0 491.0 486.0 483.0 482.0 483.0 486.0 491.0 498.0 507.0 518.0 531.0 546.0 563.0 582.0 603.0 626.0 651.0 678.0 707.0 738.0 771.0 806.0 843.0 882.0 905.0 866.0 829.0 794.0 761.0 730.0 701.0 674.0 649.0 626.0 605.0 586.0 569.0 554.0 541.0 530.0 521.0 514.0 509.0 506.0 505.0 506.0 509.0 514.0 521.0 530.0 541.0 554.0 569.0 586.0 605.0 626.0 649.0 674.0 701.0 730.0 761.0 794.0 829.0 866.0 905.0 930.0 891.0 854.0 819.0 786.0 755.0 726.0 699.0 674.0 651.0 630.0 611.0 594.0 579.0 566.0 555.0 546.0 539.0 534.0 531.0 530.0 531.0 534.0 539.0 546.0 555.0 566.0 579.0 594.0 611.0 630.0 651.0 674.0 699.0 726.0 755.0 786.0 819.0 854.0 891.0 930.0 957.0 918.0 881.0 846.0 813.0 782.0 753.0 726.0 701.0 678.0 657.0 638.0 621.0 606.0 593.0 582.0 573.0 566.0 561.0 558.0 557.0 558.0 561.0 566.0 573.0 582.0 593.0 606.0 621.0 638.0 657.0 678.0 701.0 726.0 753.0 782.0 813.0 846.0 881.0 918.0 957.0 986.0 947.0 910.0 875.0 842.0 811.0 782.0 755.0 730.0 707.0 686.0 667.0 650.0 635.0 622.0 611.0 602.0 595.0 590.0 587.0 586.0 587.0 590.0 595.0 602.0 611.0 622.0 635.0 650.0 667.0 686.0 707.0 730.0 755.0 782.0 811.0 842.0 875.0 910.0 947.0 986.0 1017.0 978.0 941.0 906.0 873.0 842.0 813.0 786.0 761.0 738.0 717.0 698.0 681.0 666.0 653.0 642.0 633.0 626.0 621.0 618.0 617.0 618.0 621.0 626.0 633.0 642.0 653.0 666.0 681.0 698.0 717.0 738.0 761.0 786.0 813.0 842.0 873.0 906.0 941.0 978.0 1017.0 1050.0 1011.0 974.0 939.0 906.0 875.0 846.0 819.0 794.0 771.0 750.0 731.0 714.0 699.0 686.0 675.0 666.0 659.0 654.0 651.0 650.0 651.0 654.0 659.0 666.0 675.0 686.0 699.0 714.0 731.0 750.0 771.0 794.0 819.0 846.0 875.0 906.0 939.0 974.0 1011.0 1050.0 1085.0 1046.0 1009.0 974.0 941.0 910.0 881.0 854.0 829.0 806.0 785.0 766.0 749.0 734.0 721.0 710.0 701.0 694.0 689.0 686.0 685.0 686.0 689.0 694.0 701.0 710.0 721.0 734.0 749.0 766.0 785.0 806.0 829.0 854.0 881.0 910.0 941.0 974.0 1009.0 1046.0 1085.0 1122.0 1083.0 1046.0 1011.0 978.0 947.0 918.0 891.0 866.0 843.0 822.0 803.0 786.0 771.0 758.0 747.0 738.0 731.0 726.0 723.0 722.0 723.0 726.0 731.0 738.0 747.0 758.0 771.0 786.0 803.0 822.0 843.0 866.0 891.0 918.0 947.0 978.0 1011.0 1046.0 1083.0 1122.0 1161.0 1122.0 1085.0 1050.0 1017.0 986.0 957.0 930.0 905.0 882.0 861.0 842.0 825.0 810.0 797.0 786.0 777.0 770.0 765.0 762.0 761.0 762.0 765.0 770.0 777.0 786.0 797.0 810.0 825.0 842.0 861.0 882.0 905.0 930.0 957.0 986.0 1017.0 1050.0 1085.0 1122.0 1161.0 1124.0 1085.0 1048.0 1013.0 980.0 949.0 920.0 893.0 868.0 845.0 824.0 805.0 788.0 773.0 760.0 749.0 740.0 733.0 728.0 725.0 724.0 725.0 728.0 733.0 740.0 749.0 760.0 773.0 788.0 805.0 824.0 845.0 868.0 893.0 920.0 949.0 980.0 1013.0 1048.0 1085.0 1124.0 1085.0 1046.0 1009.0 974.0 941.0 910.0 881.0 854.0 829.0 806.0 785.0 766.0 749.0 734.0 721.0 710.0 701.0 694.0 689.0 686.0 685.0 686.0 689.0 694.0 701.0 710.0 721.0 734.0 749.0 766.0 785.0 806.0 829.0 854.0 881.0 910.0 941.0 974.0 1009.0 1046.0 1085.0 1048.0 1009.0 972.0 937.0 904.0 873.0 844.0 817.0 792.0 769.0 748.0 729.0 712.0 697.0 684.0 673.0 664.0 657.0 652.0 649.0 648.0 649.0 652.0 657.0 664.0 673.0 684.0 697.0 712.0 729.0 748.0 769.0 792.0 817.0 844.0 873.0 904.0 937.0 972.0 1009.0 1048.0 1013.0 974.0 937.0 902.0 869.0 838.0 809.0 782.0 757.0 734.0 713.0 694.0 677.0 662.0 649.0 638.0 629.0 622.0 617.0 614.0 613.0 614.0 617.0 622.0 629.0 638.0 649.0 662.0 677.0 694.0 713.0 734.0 757.0 782.0 809.0 838.0 869.0 902.0 937.0 974.0 1013.0 980.0 941.0 904.0 869.0 836.0 805.0 776.0 749.0 724.0 701.0 680.0 661.0 644.0 629.0 616.0 605.0 596.0 589.0 584.0 581.0 580.0 581.0 584.0 589.0 596.0 605.0 616.0 629.0 644.0 661.0 680.0 701.0 724.0 749.0 776.0 805.0 836.0 869.0 904.0 941.0 980.0 949.0 910.0 873.0 838.0 805.0 774.0 745.0 718.0 693.0 670.0 649.0 630.0 613.0 598.0 585.0 574.0 565.0 558.0 553.0 550.0 549.0 550.0 553.0 558.0 565.0 574.0 585.0 598.0 613.0 630.0 649.0 670.0 693.0 718.0 745.0 774.0 805.0 838.0 873.0 910.0 949.0 920.0 881.0 844.0 809.0 776.0 745.0 716.0 689.0 664.0 641.0 620.0 601.0 584.0 569.0 556.0 545.0 536.0 529.0 524.0 521.0 520.0 521.0 524.0 529.0 536.0 545.0 556.0 569.0 584.0 601.0 620.0 641.0 664.0 689.0 716.0 745.0 776.0 809.0 844.0 881.0 920.0 893.0 854.0 817.0 782.0 749.0 718.0 689.0 662.0 637.0 614.0 593.0 574.0 557.0 542.0 529.0 518.0 509.0 502.0 497.0 494.0 493.0 494.0 497.0 502.0 509.0 518.0 529.0 542.0 557.0 574.0 593.0 614.0 637.0 662.0 689.0 718.0 749.0 782.0 817.0 854.0 893.0 868.0 829.0 792.0 757.0 724.0 693.0 664.0 637.0 612.0 589.0 568.0 549.0 532.0 517.0 504.0 493.0 484.0 477.0 472.0 469.0 468.0 469.0 472.0 477.0 484.0 493.0 504.0 517.0 532.0 549.0 568.0 589.0 612.0 637.0 664.0 693.0 724.0 757.0 792.0 829.0 868.0 845.0 806.0 769.0 734.0 701.0 670.0 641.0 614.0 589.0 566.0 545.0 526.0 509.0 494.0 481.0 470.0 461.0 454.0 449.0 446.0 445.0 446.0 449.0 454.0 461.0 470.0 481.0 494.0 509.0 526.0 545.0 566.0 589.0 614.0 641.0 670.0 701.0 734.0 769.0 806.0 845.0 824.0 785.0 748.0 713.0 680.0 649.0 620.0 593.0 568.0 545.0 524.0 505.0 488.0 473.0 460.0 449.0 440.0 433.0 428.0 425.0 424.0 425.0 428.0 433.0 440.0 449.0 460.0 473.0 488.0 505.0 524.0 545.0 568.0 593.0 620.0 649.0 680.0 713.0 748.0 785.0 824.0 805.0 766.0 729.0 694.0 661.0 630.0 601.0 574.0 549.0 526.0 505.0 486.0 469.0 454.0 441.0 430.0 421.0 414.0 409.0 406.0 405.0 406.0 409.0 414.0 421.0 430.0 441.0 454.0 469.0 486.0 505.0 526.0 549.0 574.0 601.0 630.0 661.0 694.0 729.0 766.0 805.0 788.0 749.0 712.0 677.0 644.0 613.0 584.0 557.0 532.0 509.0 488.0 469.0 452.0 437.0 424.0 413.0 404.0 397.0 392.0 389.0 388.0 389.0 392.0 397.0 404.0 413.0 424.0 437.0 452.0 469.0 488.0 509.0 532.0 557.0 584.0 613.0 644.0 677.0 712.0 749.0 788.0 773.0 734.0 697.0 662.0 629.0 598.0 569.0 542.0 517.0 494.0 473.0 454.0 437.0 422.0 409.0 398.0 389.0 382.0 377.0 374.0 373.0 374.0 377.0 382.0 389.0 398.0 409.0 422.0 437.0 454.0 473.0 494.0 517.0 542.0 569.0 598.0 629.0 662.0 697.0 734.0 773.0 760.0 721.0 684.0 649.0 616.0 585.0 556.0 529.0 504.0 481.0 460.0 441.0 424.0 409.0 396.0 385.0 376.0 369.0 364.0 361.0 360.0 361.0 364.0 369.0 376.0 385.0 396.0 409.0 424.0 441.0 460.0 481.0 504.0 529.0 556.0 585.0 616.0 649.0 684.0 721.0 760.0 749.0 710.0 673.0 638.0 605.0 574.0 545.0 518.0 493.0 470.0 449.0 430.0 413.0 398.0 385.0 374.0 365.0 358.0 353.0 350.0 349.0 350.0 353.0 358.0 365.0 374.0 385.0 398.0 413.0 430.0 449.0 470.0 493.0 518.0 545.0 574.0 605.0 638.0 673.0 710.0 749.0 740.0 701.0 664.0 629.0 596.0 565.0 536.0 509.0 484.0 461.0 440.0 421.0 404.0 389.0 376.0 365.0 356.0 349.0 344.0 341.0 340.0 341.0 344.0 349.0 356.0 365.0 376.0 389.0 404.0 421.0 440.0 461.0 484.0 509.0 536.0 565.0 596.0 629.0 664.0 701.0 740.0 733.0 694.0 657.0 622.0 589.0 558.0 529.0 502.0 477.0 454.0 433.0 414.0 397.0 382.0 369.0 358.0 349.0 342.0 337.0 334.0 333.0 334.0 337.0 342.0 349.0 358.0 369.0 382.0 397.0 414.0 433.0 454.0 477.0 502.0 529.0 558.0 589.0 622.0 657.0 694.0 733.0 728.0 689.0 652.0 617.0 584.0 553.0 524.0 497.0 472.0 449.0 428.0 409.0 392.0 377.0 364.0 353.0 344.0 337.0 332.0 329.0 328.0 329.0 332.0 337.0 344.0 353.0 364.0 377.0 392.0 409.0 428.0 449.0 472.0 497.0 524.0 553.0 584.0 617.0 652.0 689.0 728.0 725.0 686.0 649.0 614.0 581.0 550.0 521.0 494.0 469.0 446.0 425.0 406.0 389.0 374.0 361.0 350.0 341.0 334.0 329.0 326.0 325.0 326.0 329.0 334.0 341.0 350.0 361.0 374.0 389.0 406.0 425.0 446.0 469.0 494.0 521.0 550.0 581.0 614.0 649.0 686.0 725.0 724.0 685.0 648.0 613.0 580.0 549.0 520.0 493.0 468.0 445.0 424.0 405.0 388.0 373.0 360.0 349.0 340.0 333.0 328.0 325.0 324.0 325.0 328.0 333.0 340.0 349.0 360.0 373.0 388.0 405.0 424.0 445.0 468.0 493.0 520.0 549.0 580.0 613.0 648.0 685.0 724.0 725.0 686.0 649.0 614.0 581.0 550.0 521.0 494.0 469.0 446.0 425.0 406.0 389.0 374.0 361.0 350.0 341.0 334.0 329.0 326.0 325.0 326.0 329.0 334.0 341.0 350.0 361.0 374.0 389.0 406.0 425.0 446.0 469.0 494.0 521.0 550.0 581.0 614.0 649.0 686.0 725.0 728.0 689.0 652.0 617.0 584.0 553.0 524.0 497.0 472.0 449.0 428.0 409.0 392.0 377.0 364.0 353.0 344.0 337.0 332.0 329.0 328.0 329.0 332.0 337.0 344.0 353.0 364.0 377.0 392.0 409.0 428.0 449.0 472.0 497.0 524.0 553.0 584.0 617.0 652.0 689.0 728.0 733.0 694.0 657.0 622.0 589.0 558.0 529.0 502.0 477.0 454.0 433.0 414.0 397.0 382.0 369.0 358.0 349.0 342.0 337.0 334.0 333.0 334.0 337.0 342.0 349.0 358.0 369.0 382.0 397.0 414.0 433.0 454.0 477.0 502.0 529.0 558.0 589.0 622.0 657.0 694.0 733.0 740.0 701.0 664.0 629.0 596.0 565.0 536.0 509.0 484.0 461.0 440.0 421.0 404.0 389.0 376.0 365.0 356.0 349.0 344.0 341.0 340.0 341.0 344.0 349.0 356.0 365.0 376.0 389.0 404.0 421.0 440.0 461.0 484.0 509.0 536.0 565.0 596.0 629.0 664.0 701.0 740.0 749.0 710.0 673.0 638.0 605.0 574.0 545.0 518.0 493.0 470.0 449.0 430.0 413.0 398.0 385.0 374.0 365.0 358.0 353.0 350.0 349.0 350.0 353.0 358.0 365.0 374.0 385.0 398.0 413.0 430.0 449.0 470.0 493.0 518.0 545.0 574.0 605.0 638.0 673.0 710.0 749.0 760.0 721.0 684.0 649.0 616.0 585.0 556.0 529.0 504.0 481.0 460.0 441.0 424.0 409.0 396.0 385.0 376.0 369.0 364.0 361.0 360.0 361.0 364.0 369.0 376.0 385.0 396.0 409.0 424.0 441.0 460.0 481.0 504.0 529.0 556.0 585.0 616.0 649.0 684.0 721.0 760.0 773.0 734.0 697.0 662.0 629.0 598.0 569.0 542.0 517.0 494.0 473.0 454.0 437.0 422.0 409.0 398.0 389.0 382.0 377.0 374.0 373.0 374.0 377.0 382.0 389.0 398.0 409.0 422.0 437.0 454.0 473.0 494.0 517.0 542.0 569.0 598.0 629.0 662.0 697.0 734.0 773.0 788.0 749.0 712.0 677.0 644.0 613.0 584.0 557.0 532.0 509.0 488.0 469.0 452.0 437.0 424.0 413.0 404.0 397.0 392.0 389.0 388.0 389.0 392.0 397.0 404.0 413.0 424.0 437.0 452.0 469.0 488.0 509.0 532.0 557.0 584.0 613.0 644.0 677.0 712.0 749.0 788.0 805.0 766.0 729.0 694.0 661.0 630.0 601.0 574.0 549.0 526.0 505.0 486.0 469.0 454.0 441.0 430.0 421.0 414.0 409.0 406.0 405.0 406.0 409.0 414.0 421.0 430.0 441.0 454.0 469.0 486.0 505.0 526.0 549.0 574.0 601.0 630.0 661.0 694.0 729.0 766.0 805.0 824.0 785.0 748.0 713.0 680.0 649.0 620.0 593.0 568.0 545.0 524.0 505.0 488.0 473.0 460.0 449.0 440.0 433.0 428.0 425.0 424.0 425.0 428.0 433.0 440.0 449.0 460.0 473.0 488.0 505.0 524.0 545.0 568.0 593.0 620.0 649.0 680.0 713.0 748.0 785.0 824.0 845.0 806.0 769.0 734.0 701.0 670.0 641.0 614.0 589.0 566.0 545.0 526.0 509.0 494.0 481.0 470.0 461.0 454.0 449.0 446.0 445.0 446.0 449.0 454.0 461.0 470.0 481.0 494.0 509.0 526.0 545.0 566.0 589.0 614.0 641.0 670.0 701.0 734.0 769.0 806.0 845.0 868.0 829.0 792.0 757.0 724.0 693.0 664.0 637.0 612.0 589.0 568.0 549.0 532.0 517.0 504.0 493.0 484.0 477.0 472.0 469.0 468.0 469.0 472.0 477.0 484.0 493.0 504.0 517.0 532.0 549.0 568.0 589.0 612.0 637.0 664.0 693.0 724.0 757.0 792.0 829.0 868.0 893.0 854.0 817.0 782.0 749.0 718.0 689.0 662.0 637.0 614.0 593.0 574.0 557.0 542.0 529.0 518.0 509.0 502.0 497.0 494.0 493.0 494.0 497.0 502.0 509.0 518.0 529.0 542.0 557.0 574.0 593.0 614.0 637.0 662.0 689.0 718.0 749.0 782.0 817.0 854.0 893.0 920.0 881.0 844.0 809.0 776.0 745.0 716.0 689.0 664.0 641.0 620.0 601.0 584.0 569.0 556.0 545.0 536.0 529.0 524.0 521.0 520.0 521.0 524.0 529.0 536.0 545.0 556.0 569.0 584.0 601.0 620.0 641.0 664.0 689.0 716.0 745.0 776.0 809.0 844.0 881.0 920.0 949.0 910.0 873.0 838.0 805.0 774.0 745.0 718.0 693.0 670.0 649.0 630.0 613.0 598.0 585.0 574.0 565.0 558.0 553.0 550.0 549.0 550.0 553.0 558.0 565.0 574.0 585.0 598.0 613.0 630.0 649.0 670.0 693.0 718.0 745.0 774.0 805.0 838.0 873.0 910.0 949.0 980.0 941.0 904.0 869.0 836.0 805.0 776.0 749.0 724.0 701.0 680.0 661.0 644.0 629.0 616.0 605.0 596.0 589.0 584.0 581.0 580.0 581.0 584.0 589.0 596.0 605.0 616.0 629.0 644.0 661.0 680.0 701.0 724.0 749.0 776.0 805.0 836.0 869.0 904.0 941.0 980.0 1013.0 974.0 937.0 902.0 869.0 838.0 809.0 782.0 757.0 734.0 713.0 694.0 677.0 662.0 649.0 638.0 629.0 622.0 617.0 614.0 613.0 614.0 617.0 622.0 629.0 638.0 649.0 662.0 677.0 694.0 713.0 734.0 757.0 782.0 809.0 838.0 869.0 902.0 937.0 974.0 1013.0 1048.0 1009.0 972.0 937.0 904.0 873.0 844.0 817.0 792.0 769.0 748.0 729.0 712.0 697.0 684.0 673.0 66